
 Primary working directories    : /tmp/estevao
 Secondary working directories  : /tmp/estevao
 Wavefunction directory         : /home/estevao/wfu/
 Main file repository           : /tmp/estevao/

 SHA1      : 960ce83de8be0427555cf121dea4debc26c720b5
 NAME      : 2012.1.960ce83
 ARCHNAME  : Linux/x86_64
 FC        : /opt/intel/composer_xe_2013_sp1.2.144/bin/intel64/ifort
 FCVERSION : 14.0.2
 BLASLIB   : -Wl,-_start-group /opt/intel/mkl/lib/intel64/libmkl_intel_ilp64.a /opt/intel/mkl/lib/intel64/libmkl_sequential.a /opt/intel/mkl/lib/intel64/libmkl_core.a -Wl,-_end-group
 id        : ufes

 Nodes     nprocs
 camarada     3
 ga_uses_ma=false, calling ma_init with nominal heap.
 GA-space will be limited to   8.0 MW (determined by -G option)

 Using customized tuning parameters: mindgm=7; mindgv=24; mindgc=1; mindgr=1; noblas=0; minvec=7
 default implementation of scratch files=sf  

 ***,
 
 basis={
                                                                                 !
                                                                                 ! aluminium            (6s,4p) -&gt; [3s,2p]
 s, AL , 0.5605994123E+00, 0.1923360636E+00, 0.7304329554E+01, 0.1852570854E+01, 0.1343774607E+03, 0.2391912027E+02
 c, 1.2, -0.2983986045E+00, 0.1227982887E+01
 c, 3.4, 0.4947176920E-01, 0.9637824081E+00
 c, 5.6, 0.4301284983E+00, 0.6789135305E+00
 p, AL , 0.7304329554E+01, 0.1852570854E+01, 0.5605994123E+00, 0.1923360636E+00
 c, 1.2, 0.5115407076E+00, 0.6128198961E+00
 c, 3.4, 0.3480471912E+00, 0.7222523221E+00
 }
 
 r1=2.706
 r2=2.414
 r3=2.481
 r4=2.817
 r5=2.529
 r6=2.547
 r7=2.510
 r8=2.401
 r9=2.666
 t1=66.357
 t2=65.256
 t3=115.675
 t4=107.280
 t5=105.113
 t6=97.637
 t7=104.449
 t8=63.620
 a1=104.0
 a2=89.4
 a3=345.8
 a4=272.6
 a5=43.5
 a6=341.2
 a7=238.2
 
 geometry={ang
 Al
 Al, 1, r1
 Al, 2, r2, 1, t1
 Al, 2, r3, 1, t2, 3, a1
 Al, 3, r4, 2, t3, 1, a2
 Al, 1, r5, 2, t4, 3, a3
 Al, 5, r6, 3, t5, 2, a4
 Al, 7, r7, 5, t6, 3, a5
 Al, 5, r8, 3, t7, 2, a6
 Al, 4, r9, 2, t8, 1, a7
 }
 
 SET,CHARGE=0
 direct
 {ks, b3lyp,maxit=200}
 optg
 total_energy = energy
 

 Variables initialized (778), CPU time= 0.00 sec
 Commands  initialized (547), CPU time= 0.01 sec, 516 directives.
 Default parameters read. Elapsed time= 0.05 sec

 Checking input...
 Passed
1


                                         ***  PROGRAM SYSTEM MOLPRO  ***
                         Copyright, University College Cardiff Consultants Limited, 2008

                                    Version 2012.1 linked Apr  1 2014 15:33:03


 **********************************************************************************************************************************
 LABEL *                                                                                 
 Linux-5.4.0-88-generic/camarada(x86_64) 64 bit mpp version                              DATE: 23-Oct-21          TIME: 03:03:01  
 **********************************************************************************************************************************

 SHA1:             960ce83de8be0427555cf121dea4debc26c720b5
 **********************************************************************************************************************************

 Variable memory set to    8000000 words,  buffer space   230000 words

 SETTING BASIS          =    USERDEF
 SETTING R1             =         2.70600000                                  
 SETTING R2             =         2.41400000                                  
 SETTING R3             =         2.48100000                                  
 SETTING R4             =         2.81700000                                  
 SETTING R5             =         2.52900000                                  
 SETTING R6             =         2.54700000                                  
 SETTING R7             =         2.51000000                                  
 SETTING R8             =         2.40100000                                  
 SETTING R9             =         2.66600000                                  
 SETTING T1             =        66.35700000                                  
 SETTING T2             =        65.25600000                                  
 SETTING T3             =       115.67500000                                  
 SETTING T4             =       107.28000000                                  
 SETTING T5             =       105.11300000                                  
 SETTING T6             =        97.63700000                                  
 SETTING T7             =       104.44900000                                  
 SETTING T8             =        63.62000000                                  
 SETTING A1             =       104.00000000                                  
 SETTING A2             =        89.40000000                                  
 SETTING A3             =       345.80000000                                  
 SETTING A4             =       272.60000000                                  
 SETTING A5             =        43.50000000                                  
 SETTING A6             =       341.20000000                                  
 SETTING A7             =       238.20000000                                  
 SETTING CHARGE         =         0.00000000                                  


 Recomputing integrals since basis changed


 Using spherical harmonics


1PROGRAM * SEWARD (Integral evaluation for generally contracted gaussian basis sets)     Author: Roland Lindh, 1990

 Geometry written to block  1 of record 700

 Orientation using atomic masses  
 Molecule type: Asymmetric top
 Rotational constants:       0.4379081      0.4887227      0.6100839 GHz  (calculated with average atomic masses)

 Point group  C1  



 ATOMIC COORDINATES

 NR  ATOM    CHARGE       X              Y              Z

   1  AL     13.00   -0.629436842   -3.987299288    1.754862621
   2  AL     13.00   -0.133126593   -0.300733367    5.263680324
   3  AL     13.00    3.269498777   -0.406224692    2.227066881
   4  AL     13.00   -3.298896405    0.585078086    1.920862219
   5  AL     13.00    2.537958136    2.520177731   -2.159180148
   6  AL     13.00    2.455890132   -3.021756270   -1.764859972
   7  AL     13.00    0.194297943   -0.365375373   -5.216480301
   8  AL     13.00   -2.901952060   -2.184922359   -2.118004812
   9  AL     13.00   -1.939513990    3.239171334   -2.306726045
  10  AL     13.00    0.445280903    3.921884197    2.398779233

 Bond lengths in Bohr (Angstrom)

 1-2  5.113598912  1-3  5.314957298  1-4  5.297188412  1-6  4.779117386  1-8  4.838593821
     ( 2.706000000)     ( 2.812554269)     ( 2.803151380)     ( 2.529000000)     ( 2.560473574)

  2- 3  4.561798881   2- 4  4.688410532   2-10  5.135436942   3- 5  5.323358512   3- 6  4.841326725
       ( 2.414000000)       ( 2.481000000)       ( 2.717556188)       ( 2.817000000)       ( 2.561919764)

  3-10  5.170901109   4- 8  4.913543952   4- 9  5.173454750   4-10  5.038009866   5- 6  5.556550731
       ( 2.736323017)       ( 2.600135475)       ( 2.737674345)       ( 2.666000000)       ( 2.940400008)

  5- 7  4.813132457   5- 9  4.537232442   5-10  5.207597597   6- 7  4.907630956   6- 8  5.434287003
       ( 2.547000000)       ( 2.401000000)       ( 2.755741962)       ( 2.597006452)       ( 2.875700829)

  7- 8  4.743212590   7- 9  5.100252951   8- 9  5.512049994   9-10  5.319316070
       ( 2.510000000)       ( 2.698937622)       ( 2.916851232)       ( 2.814860832)

 Bond angles

  1- 2- 3   66.35700000   1- 2- 4   65.25600000   1- 2-10  102.76336098   1- 3- 2   61.80646800

  1- 3- 5  101.32528565   1- 3- 6   55.90652085   1- 3-10   99.56954424   1- 4- 2   61.24814031

  1- 4- 8   56.42138634   1- 4- 9  106.54699135   1- 4-10  101.54590668   1- 6- 3   67.06894011

  1-6-5  105.26605456   1-6-7  109.25836498   1-6-8   56.11469048   1-8-4   65.79583676

  1-8-6   55.07988078   1-8-7  111.04948705   1-8-9  108.17704334   2-1-3   51.83653200

  2-1-4   53.49585969   2-1-6  107.28000000   2-1-8  109.04179984   2-3-5  115.67500000

  2- 3- 6  115.84986491   2- 3-10   63.33004949   2- 4- 8  115.15138612   2- 4- 9  120.14181040

  2- 4-10   63.62000000   2-10- 3   52.54105359   2-10- 4   54.87353468   2-10- 5  108.19275996

  2-10- 9  109.72262153   3- 1- 4   77.60285484   3- 1- 6   57.02453903   3- 1- 8   99.47789219

  3- 2- 4   91.91452375   3- 2-10   64.12889692   3- 5- 6   52.79092356   3- 5- 7  105.11300000

  3- 5- 9  104.44900000   3- 5-10   58.80289337   3- 6- 5   61.13171836   3- 6- 7  111.40401171

  3- 6- 8   97.82107399   3-10- 4   81.27942149   3-10- 5   61.71609688   3-10- 9   96.20364188

  4- 1- 6  100.02193368   4- 1- 8   57.78277690   4- 2-10   61.50646532   4- 8- 6   96.49089186

  4-8-7  111.92749605   4-8-9   59.16927733   4-9-5   98.70984542   4-9-7  102.33134285

  4- 9- 8   54.64133124   4- 9-10   57.36899362   4-10- 5   92.14026283   4-10- 9   59.86008852

  5- 3- 6   66.07735808   5- 3-10   59.48100975   5- 6- 7   54.34125784   5- 6- 8   81.74168761

  5-7-6   69.71830760   5-7-8   97.63700000   5-7-9   54.38247087   5-9-7   59.58201954

  5- 9- 8   90.87416517   5- 9-10   63.20173672   5-10- 9   51.05016631   6- 1- 8   68.80542873

  6- 3-10  112.81709930   6- 5- 7   55.94043455   6- 5- 9   98.38250921   6- 5-10  101.56095113

  6-7-8   68.51501594   6-7-9  100.02569225   6-8-7   57.17542846   6-8-9   88.94622408

  7- 5- 9   66.03550959   7- 5-10  121.44337423   7- 6- 8   54.30955560   7- 8- 9   59.08047493

  7- 9- 8   52.92373604   7- 9-10  114.06780701   8- 4- 9   66.18939143   8- 4-10  113.03676783

  8- 7- 9   67.99578904   8- 9-10  100.03743403   9- 4-10   62.77091786   9- 5-10   65.74809697

 NUCLEAR CHARGE:                  130
 NUMBER OF PRIMITIVE AOS:         180
 NUMBER OF SYMMETRY AOS:          180
 NUMBER OF CONTRACTIONS:           90   (  90A   )
 NUMBER OF CORE ORBITALS:          50   (  50A   )
 NUMBER OF VALENCE ORBITALS:       40   (  40A   )


 NUCLEAR REPULSION ENERGY 1247.43532254


 Eigenvalues of metric

         1 0.343E+00 0.350E+00 0.371E+00 0.385E+00 0.408E+00 0.418E+00 0.432E+00 0.443E+00


 OPERATOR DM      FOR CENTER  0  COORDINATES:    0.000000    0.000000    0.000000


 **********************************************************************************************************************************
 DATASETS  * FILE   NREC   LENGTH (MB)   RECORD NAMES
              1      18        7.97       500      610      700      900      950      970     1000      129      960     1100   
                                          VAR    BASINP    GEOM    SYMINP    ZMAT    AOBASIS   BASIS     P2S    ABASIS      S 
                                         1400     1410     1200     1210     1080     1600     1650     1700   
                                           T        V       H0       H01     AOSYM     SMH    MOLCAS    OPER   

 PROGRAMS   *        TOTAL       INT
 CPU TIMES  *         0.10      0.02
 REAL TIME  *         0.14 SEC
 DISK USED  *         0.00 MB      
 GA USED    *         0.00 MB       (max)       0.00 MB       (current)
 **********************************************************************************************************************************

 Density functional group B3LYP=B88+DIRAC+LYP+VWN5
 Functional: B88(Automatically generated (new) B88)                            Gradient terms: 1
 Functional: DIRAC(Automatically generated (new) DIRAC)                        Gradient terms: 0
 Functional: LYP(Automatically generated (new) LYP)                            Gradient terms: 1
 Functional: VWN5(Automatically generated (new) VWN5)                          Gradient terms: 0
 Use grid at  1800.2
 

 Exact exchange will be calculated, factor:  0.2000

 Functional: B88                       Factor:  0.7200
 Functional: DIRAC                     Factor:  0.0800
 Functional: LYP                       Factor:  0.8100
 Functional: VWN5                      Factor:  0.1900
 
 Generated new metagrid on record  1800.2 with target accuracy 1.0D-06 and 76624 points in CPU time    0.4
 Computed new grid on record 1800.1 in CPU time    0.5
   75984 words reserved for DFT integration

 PROGRAM * RKS-SCF (Restricted closed shell Kohn-Sham)     Authors: W. Meyer, H.-J. Werner, P.J. Knowles, 1993

 NUMBER OF ELECTRONS:      65+   65-    SPACE SYMMETRY=1    SPIN SYMMETRY: Singlet 
 CONVERGENCE THRESHOLDS:    1.00E-06 (Density)    2.60E-06 (Energy)
 INTEGRAL THRESHOLDS:       1.00E-11 (Initial)    1.00E-11 (Final)
 MAX. NUMBER OF ITERATIONS:      200
 INTERPOLATION TYPE:            DIIS
 INTERPOLATION STEPS:              2 (START)      1 (STEP)
 LEVEL SHIFTS:                  0.00 (CLOSED)  0.00 (OPEN) 



 Use fine grid record 1800.2 for energy threshold  1.0D-06
 Orbital guess generated from atomic densities. Full valence occupancy:   65

 Molecular orbital dump at record        2100.2

 Direct Fock-matrix evaluation.        Authors: Roland Lindh & Martin Schuetz (1993/96)

 Integral Threshold:                  0.1D-10
 Threshold for writing integrals:     0.1D-06
 Prescreening on density matrix:        ON 
 Calculation will be performed fully direct        

 ITERATION   DDIFF            GRAD            ENERGY        2-EL.EN.            DIPOLE MOMENTS         DIIS   CPU(IT)  CPU(TOT)
    1      0.000D+00      0.000D+00     -2325.08633964   4743.719077   -0.49564   -0.59597   -0.25576    0      0.3      0.5     start
    2      0.000D+00      0.200D-01     -2324.90085127   4631.723739    1.83619    2.01491    2.71611    1      0.2      0.8     diag
    3      0.847D-01      0.211D-01     -2326.00112927   4675.112331   -4.21229   -4.39886   -7.21687    2      0.3      1.0     diag
    4      0.630D-01      0.129D-01     -2326.32348897   4676.370370    4.12711    3.62798    8.41582    3      0.3      1.3     diag
    5      0.456D-01      0.970D-02     -2326.54309122   4675.704171   -1.41760   -2.68378   -3.68985    4      0.3      1.6     diag
    6      0.273D-01      0.494D-02     -2326.60213023   4675.916062   -0.70927    1.50328    0.82468    5      0.2      1.8     diag
    7      0.140D-01      0.253D-02     -2326.60968953   4675.858440    1.25793   -1.81689    0.40672    6      0.3      2.1     diag
    8      0.861D-02      0.203D-02     -2326.62138813   4676.220168   -0.26377   -0.12876    0.05894    7      0.3      2.4     diag
    9      0.495D-02      0.631D-03     -2326.62276025   4676.253145    0.04656   -0.40351    0.02785    8      0.2      2.6     diag
   10      0.184D-02      0.138D-03     -2326.62286314   4676.240294   -0.04047   -0.46724    0.08803    9      0.2      2.8     orth
   11      0.833D-03      0.982D-04     -2326.62290366   4676.239705    0.05732   -0.39442   -0.04554    9      0.2      3.1     diag
   12      0.653D-03      0.112D-03     -2326.62295739   4676.221254    0.00609   -0.45083    0.03673    9      0.2      3.3     diag
   13      0.351D-03      0.293D-04     -2326.62298476   4676.225755    0.01919   -0.45556    0.03165    9      0.3      3.6     diag
   14      0.633D-03      0.219D-04     -2326.62299259   4676.228189    0.02759   -0.45616    0.04461    9      0.3      3.8     diag
   15      0.312D-03      0.173D-04     -2326.62299594   4676.234304    0.02301   -0.46349    0.03278    9      0.2      4.1     diag
   16      0.184D-03      0.131D-04     -2326.62299822   4676.221516    0.02703   -0.46161    0.03599    9      0.2      4.3     diag
   17      0.157D-03      0.676D-05     -2326.62299941   4676.226313    0.03322   -0.47143    0.03502    9      0.2      4.6     diag
   18      0.181D-03      0.730D-05     -2326.62299985   4676.227805    0.02995   -0.46390    0.03685    9      0.2      4.8     diag
   19      0.653D-04      0.422D-05     -2326.62300013   4676.226362    0.03346   -0.46703    0.03634    9      0.2      5.0     fixocc
   20      0.129D-03      0.249D-05     -2326.62300010   4676.225613    0.03329   -0.46525    0.03543    9      0.2      5.3     orth
   21      0.627D-04      0.198D-05     -2326.62300015   4676.225823    0.03208   -0.46652    0.03647    9      0.2      5.5     diag
   22      0.279D-04      0.158D-05     -2326.62300018   4676.225856    0.03349   -0.46617    0.03598    9      0.2      5.7     diag
   23      0.406D-04      0.566D-06     -2326.62300018   4676.226029    0.03371   -0.46616    0.03656    9      0.2      5.9     diag
   24      0.605D-05      0.561D-06     -2326.62300018   4676.225881    0.03357   -0.46612    0.03609    9      0.2      6.2     diag
   25      0.509D-05      0.154D-06     -2326.62300018   4676.225869    0.03358   -0.46614    0.03603    9      0.2      6.4     diag
   26      0.115D-05      0.138D-06     -2326.62300018   4676.225780    0.03369   -0.46614    0.03614    9      0.2      6.6     diag
   27      0.199D-05      0.820D-07     -2326.62300019   4676.225782    0.03366   -0.46610    0.03607    9      0.2      6.8     diag
   28      0.941D-06      0.322D-07     -2326.62300019   4676.225833    0.03373   -0.46616    0.03613    0      0.2      7.0     orth

 Final occupancy:  65

 !RKS STATE 1.1 Energy              -2326.623000191765
 Nuclear energy                      1247.43532254
 One-electron energy                -5764.98855837
 Two-electron energy                 2338.11291649
 Density functional                  -147.18268084     B88=-177.80459054 DIRAC=-163.12021063 LYP=  -5.22820049 VWN5=  -9.88903370
 Virial quotient                       -1.03376917
 !RKS STATE 1.1 Dipole moment           0.03373006    -0.46615754     0.03613236
 Dipole moment /Debye                   0.08572764    -1.18477669     0.09183328

 Orbital energies:

         1.1          2.1          3.1          4.1          5.1          6.1          7.1          8.1          9.1         10.1
    -53.574742   -53.562337   -53.559638   -53.556856   -53.556253   -53.555732   -53.555542   -53.552951   -53.541682   -53.539015

        11.1         12.1         13.1         14.1         15.1         16.1         17.1         18.1         19.1         20.1
     -3.688848    -3.678263    -3.676005    -3.675243    -3.674347    -3.672367    -3.670284    -3.668669    -3.656523    -3.654003

        21.1         22.1         23.1         24.1         25.1         26.1         27.1         28.1         29.1         30.1
     -2.205658    -2.201184    -2.199942    -2.194233    -2.192716    -2.191880    -2.191286    -2.190653    -2.190059    -2.189266

        31.1         32.1         33.1         34.1         35.1         36.1         37.1         38.1         39.1         40.1
     -2.188338    -2.188047    -2.187752    -2.187079    -2.186288    -2.186069    -2.185016    -2.184157    -2.183830    -2.182552

        41.1         42.1         43.1         44.1         45.1         46.1         47.1         48.1         49.1         50.1
     -2.181853    -2.181110    -2.180371    -2.179771    -2.172371    -2.171018    -2.168294    -2.167634    -2.165459    -2.164607

        51.1         52.1         53.1         54.1         55.1         56.1         57.1         58.1         59.1         60.1
     -0.365501    -0.277557    -0.265070    -0.241832    -0.150151    -0.126181    -0.103957    -0.095270    -0.089988    -0.003593

        61.1         62.1         63.1         64.1         65.1         66.1         67.1
      0.048245     0.056734     0.062072     0.076996     0.080936     0.114750     0.130364

 HOMO     65.1     0.080936 =       2.2024eV
 LUMO     66.1     0.114750 =       3.1225eV
 LUMO-HOMO         0.033814 =       0.9201eV


 **********************************************************************************************************************************
 DATASETS  * FILE   NREC   LENGTH (MB)   RECORD NAMES
              1      19        7.97       500      610      700      900      950      970     1000      129      960     1100   
                                          VAR    BASINP    GEOM    SYMINP    ZMAT    AOBASIS   BASIS     P2S    ABASIS      S 
                                         1400     1410     1200     1210     1080     1600     1650     1700     1800   
                                           T        V       H0       H01     AOSYM     SMH    MOLCAS    OPER     GRID   

              2       5        0.61       700     1000      520     1800     2100   
                                         GEOM     BASIS   MCVARS    GRID      RKS  

 PROGRAMS   *        TOTAL        KS       INT
 CPU TIMES  *         7.60      7.50      0.02
 REAL TIME  *         8.33 SEC
 DISK USED  *        27.67 MB      
 SF USED    *         0.10 MB      
 GA USED    *         2.45 MB       (max)       2.45 MB       (current)
 **********************************************************************************************************************************


 PROGRAM * OPT (Geometry optimization)     Authors: F. Eckert and H.-J. Werner


 BFGS update of hessian

 *** Long output written to logfile /home/estevao/testes/Molpro_tools/./data/0_0_optg.log ***


 Geometry optimization using default procedure for command KS-SCF

 Geometry written to block  1 of record 700

 Making model hessian for Z-matrix coordinates

 Quadratic Steepest Descent - Minimum Search

 ITER.   ENERGY(OLD)    ENERGY(NEW)      DE          GRADMAX     GRADNORM    GRADRMS     STEPMAX     STEPLEN     STEPRMS   CPU-time
   1 -2326.62300019 -2326.64231674    -0.01931655  0.31173880  0.62418365  0.12741095  0.10972511  0.13993240  0.00583052      6.05
   2 -2326.64231674 -2326.70916311    -0.06684637  0.28420172  0.57542304  0.11745774  0.33875589  0.43917055  0.01829877     12.44
   3 -2326.70916311 -2326.72215012    -0.01298700  0.12744011  0.31339791  0.06397208  0.44401994  0.58191543  0.02424648     18.63
   4 -2326.72215012 -2326.73404489    -0.01189478  0.15185609  0.34756332  0.07094607  0.19895889  0.25934585  0.01080608     24.74
   5 -2326.73404489 -2326.73617037    -0.00212548  0.09080385  0.13040812  0.02661945  0.02300201  0.04437028  0.00184876     30.23
   6 -2326.73617037 -2326.74633451    -0.01016415  0.08632577  0.12603514  0.02572681  0.17113667  0.36986567  0.01541107     36.66
   7 -2326.74633451 -2326.75200352    -0.00566901  0.08963374  0.21069916  0.04300879  0.03345466  0.09571142  0.00398798     42.20
   8 -2326.75200352 -2326.77110530    -0.01910177  0.11503916  0.21150459  0.04317319  0.22007163  0.57834447  0.02409769     48.60
   9 -2326.77110530 -2326.78017500    -0.00906970  0.33883906  0.46000458  0.09389804  0.20682571  0.24017486  0.01000729     54.33
  10 -2326.78017500 -2326.79249344    -0.01231844  0.23069599  0.37879776  0.07732177  0.27717121  0.37265184  0.01552716     59.97
  11 -2326.79249344 -2326.80110277    -0.00860932  0.17648901  0.31159757  0.06360459  0.28600924  0.40051386  0.01668808     65.55
  12 -2326.80110277 -2326.80415606    -0.00305329  0.06360276  0.14374395  0.02934161  0.05590501  0.10947406  0.00456142     71.00
  13 -2326.80415606 -2326.80800340    -0.00384734  0.07919765  0.13553438  0.02766584  0.15994503  0.18430779  0.00767949     76.40
  14 -2326.80800340 -2326.81227576    -0.00427236  0.09030728  0.13627037  0.02781607  0.21990904  0.30714964  0.01279790     81.87
  15 -2326.81227576 -2326.81391587    -0.00164011  0.05652857  0.11844536  0.02417756  0.06063487  0.08781937  0.00365914     87.47
  16 -2326.81391587 -2326.81727453    -0.00335866  0.06295262  0.11565087  0.02360713  0.22485972  0.28190328  0.01174597     93.18
  17 -2326.81727453 -2326.81896975    -0.00169523  0.07847275  0.13334414  0.02721876  0.16684785  0.17914495  0.00746437     98.45
  18 -2326.81896975 -2326.82032117    -0.00135141  0.04886137  0.10261856  0.02094693  0.14069737  0.16815972  0.00700665    103.72
  19 -2326.82032117 -2326.82107933    -0.00075817  0.03781174  0.07354320  0.01501194  0.03357673  0.06725512  0.00280230    108.89
  20 -2326.82107933 -2326.82245554    -0.00137620  0.04055939  0.06711216  0.01369921  0.09327017  0.13265083  0.00552712    114.15
  21 -2326.82245554 -2326.82342627    -0.00097074  0.03243219  0.07177790  0.01465160  0.08833178  0.11807419  0.00491976    119.47
  22 -2326.82342627 -2326.82397807    -0.00055180  0.03164406  0.06111108  0.01247425  0.05995081  0.07536475  0.00314020    124.72
  23 -2326.82397807 -2326.82450598    -0.00052791  0.02595403  0.04977767  0.01016083  0.06489430  0.07572935  0.00315539    129.98
  24 -2326.82450598 -2326.82489930    -0.00039332  0.01843475  0.04126343  0.00842286  0.05507601  0.07593331  0.00316389    135.20
  25 -2326.82489930 -2326.82518799    -0.00028870  0.02363605  0.03503022  0.00715051  0.04907986  0.06942969  0.00289290    140.17
  26 -2326.82518799 -2326.82533734    -0.00014934  0.01529861  0.02839590  0.00579629  0.04336734  0.05231031  0.00217960    145.10
  27 -2326.82533734 -2326.82542800    -0.00009067  0.01408789  0.02335271  0.00476685  0.02832944  0.03667386  0.00152808    149.88
  28 -2326.82542800 -2326.82551711    -0.00008910  0.01192644  0.02212186  0.00451561  0.03196410  0.04940058  0.00205836    154.59
  29 -2326.82551711 -2326.82559323    -0.00007613  0.01130969  0.02100792  0.00428822  0.03885523  0.05586085  0.00232754    159.34
  30 -2326.82559323 -2326.82564737    -0.00005413  0.01070396  0.01898691  0.00387569  0.03794054  0.04664702  0.00194363    164.02
  31 -2326.82564737 -2326.82569756    -0.00005020  0.00882304  0.01759636  0.00359184  0.03318359  0.03836399  0.00159850    168.68
  32 -2326.82569756 -2326.82574907    -0.00005150  0.01035145  0.01780206  0.00363383  0.03510302  0.04162777  0.00173449    173.33
  33 -2326.82574907 -2326.82578437    -0.00003530  0.00970513  0.01857326  0.00379125  0.03411641  0.04323489  0.00180145    177.96
  34 -2326.82578437 -2326.82581299    -0.00002862  0.01096798  0.01766979  0.00360683  0.03226021  0.04447056  0.00185294    182.66
  35 -2326.82581299 -2326.82584870    -0.00003571  0.00896147  0.01395653  0.00284887  0.02371916  0.03525188  0.00146883    187.33
  36 -2326.82584870 -2326.82586732    -0.00001862  0.00555436  0.01076559  0.00219752  0.01310723  0.01593178  0.00066382    191.73
  37 -2326.82586732 -2326.82587246    -0.00000513  0.00416194  0.00846875  0.00172868  0.01171797  0.01412833  0.00058868    196.13
 Freezing grid
  38 -2326.82587246 -2326.82587377    -0.00000131  0.00299042  0.00714030  0.00145751  0.00747192  0.00924256  0.00038511    200.95
  39 -2326.82587377 -2326.82587681    -0.00000305  0.00340091  0.00566070  0.00115549  0.00541015  0.00679264  0.00028303    205.17
  40 -2326.82587681 -2326.82587885    -0.00000204  0.00217274  0.00329009  0.00067159  0.00564252  0.00700034  0.00029168    209.37
  41 -2326.82587885 -2326.82588024    -0.00000139  0.00094578  0.00194979  0.00039800  0.00483279  0.00592330  0.00024680    213.40
  42 -2326.82588024 -2326.82588132    -0.00000107  0.00078328  0.00194584  0.00039719  0.00432084  0.00513445  0.00021394    217.46
  43 -2326.82588132 -2326.82588215    -0.00000083  0.00114615  0.00193524  0.00039503  0.00375341  0.00426979  0.00017791    221.54
  44 -2326.82588215 -2326.82588269    -0.00000054  0.00101773  0.00145709  0.00029743  0.00254533  0.00283631  0.00011818    225.55
  45 -2326.82588269 -2326.82588304    -0.00000035  0.00057482  0.00088191  0.00018002  0.00164787  0.00202015  0.00008417    229.27
  46 -2326.82588304 -2326.82588324    -0.00000020  0.00047338  0.00070509  0.00014393  0.00093691  0.00145355  0.00006056    233.03
  47 -2326.82588324 -2326.82588335    -0.00000011  0.00035875  0.00076309  0.00015577  0.00054450  0.00105144  0.00004381    236.59
  48 -2326.82588335 -2326.82588340    -0.00000006  0.00039486  0.00065488  0.00013368  0.00030292  0.00061112  0.00002546    240.18
  49 -2326.82588340 -2326.82588344    -0.00000004  0.00026385  0.00042096  0.00008593  0.00018423  0.00032870  0.00001370    243.69

 END OF GEOMETRY OPTIMIZATION.

 Optimized variables
 R1=                  2.39474111 ANGSTROM
 R2=                  2.45999025 ANGSTROM
 T1=                 61.80501692 DEGREE
 R3=                  2.50938422 ANGSTROM
 T2=                 60.76835563 DEGREE
 A1=                100.47216784 DEGREE
 R4=                  2.58368060 ANGSTROM
 T3=                 85.50191698 DEGREE
 A2=                 85.21371479 DEGREE
 R5=                  2.51299634 ANGSTROM
 T4=                109.56736967 DEGREE
 A3=                332.73398543 DEGREE
 R6=                  2.50827441 ANGSTROM
 T5=                112.25783507 DEGREE
 A4=                243.54603707 DEGREE
 R7=                  2.46054872 ANGSTROM
 T6=                 84.80182513 DEGREE
 A5=                 56.94173049 DEGREE
 R8=                  3.04534157 ANGSTROM
 T7=                128.95359017 DEGREE
 A6=                299.39519581 DEGREE
 R9=                  3.04481553 ANGSTROM
 T8=                 50.03968595 DEGREE
 A7=                233.51781432 DEGREE

 **********************************************************************************************************************************

 Current geometry (xyz format, in Angstrom)

   10
 KS-SCF000/USERDEF  ENERGY=-2326.82588344
 Al        -1.1345393559       -1.5154983289        0.5395486075
 Al        -1.1569578026        0.0397498456        2.3603960829
 Al         0.9887497926       -0.9894169730        1.7372535550
 Al        -1.1621320425        0.9088573705        0.0063284297
 Al         1.1611040648        0.9097535068       -0.0059764687
 Al         1.1348526165       -1.5150421561       -0.5398079048
 Al         1.1580633645        0.0422840904       -2.3594692118
 Al        -0.9870045756       -0.9907612535       -1.7383405054
 Al        -0.7039007019        1.5546146122       -2.3254627561
 Al         0.7017646400        1.5554592860        2.3255301717

 **********************************************************************************************************************************

 Geometry written to block  1 of record 700


 **********************************************************************************************************************************
 DATASETS  * FILE   NREC   LENGTH (MB)   RECORD NAMES
              1      19        7.97       500      610      700      900      950      970     1000      129      960     1100   
                                          VAR    BASINP    GEOM    SYMINP    ZMAT    AOBASIS   BASIS     P2S    ABASIS      S 
                                         1400     1410     1200     1210     1080     1600     1650     1700     1800   
                                           T        V       H0       H01     AOSYM     SMH    MOLCAS    OPER     GRID   

              2       5        0.61       700     1000      520     1800     2100   
                                         GEOM     BASIS   MCVARS    GRID      RKS  

 PROGRAMS   *        TOTAL      OPTG        KS       INT
 CPU TIMES  *       251.29    243.69      7.50      0.02
 REAL TIME  *       263.11 SEC
 DISK USED  *        27.67 MB      
 SF USED    *         0.10 MB      
 GA USED    *         2.90 MB       (max)       2.81 MB       (current)
 **********************************************************************************************************************************
 SETTING TOTAL_ENERGY   =     -2326.82588344  AU                              

        OPTG(KS)        KS-SCF  
  -2326.82588344  -2326.62300019
 **********************************************************************************************************************************
 Variable memory released

